# vtk DataFile Version 2.0
fem_test
ASCII
DATASET UNSTRUCTURED_GRID
POINTS 189 float
0 0 0 
0 0.125 0 
0 0.25 0 
0 0.375 0 
0 0.5 0 
0 0.625 0 
0 0.75 0 
0 0.875 0 
0 1 0 
0.5 1 0 
0.5 0.875 0 
0.5 0.75 0 
0.5 0.625 0 
0.5 0.5 0 
0.5 0.375 0 
0.5 0.25 0 
0.5 0.125 0 
0.5 0 0 
1 0 0 
1 0.125 0 
1 0.25 0 
1 0.375 0 
1 0.5 0 
1 0.625 0 
1 0.75 0 
1 0.875 0 
1 1 0 
1.5 1 0 
1.5 0.875 0 
1.5 0.75 0 
1.5 0.625 0 
1.5 0.5 0 
1.5 0.375 0 
1.5 0.25 0 
1.5 0.125 0 
1.5 0 0 
2 0 0 
2 0.125 0 
2 0.25 0 
2 0.375 0 
2 0.5 0 
2 0.625 0 
2 0.75 0 
2 0.875 0 
2 1 0 
2.5 1 0 
2.5 0.875 0 
2.5 0.75 0 
2.5 0.625 0 
2.5 0.5 0 
2.5 0.375 0 
2.5 0.25 0 
2.5 0.125 0 
2.5 0 0 
3 0 0 
3 0.125 0 
3 0.25 0 
3 0.375 0 
3 0.5 0 
3 0.625 0 
3 0.75 0 
3 0.875 0 
3 1 0 
3.5 1 0 
3.5 0.875 0 
3.5 0.75 0 
3.5 0.625 0 
3.5 0.5 0 
3.5 0.375 0 
3.5 0.25 0 
3.5 0.125 0 
3.5 0 0 
4 0 0 
4 0.125 0 
4 0.25 0 
4 0.375 0 
4 0.5 0 
4 0.625 0 
4 0.75 0 
4 0.875 0 
4 1 0 
4.5 1 0 
4.5 0.875 0 
4.5 0.75 0 
4.5 0.625 0 
4.5 0.5 0 
4.5 0.375 0 
4.5 0.25 0 
4.5 0.125 0 
4.5 0 0 
5 0 0 
5 0.125 0 
5 0.25 0 
5 0.375 0 
5 0.5 0 
5 0.625 0 
5 0.75 0 
5 0.875 0 
5 1 0 
5.5 1 0 
5.5 0.875 0 
5.5 0.75 0 
5.5 0.625 0 
5.5 0.5 0 
5.5 0.375 0 
5.5 0.25 0 
5.5 0.125 0 
5.5 0 0 
6 0 0 
6 0.125 0 
6 0.25 0 
6 0.375 0 
6 0.5 0 
6 0.625 0 
6 0.75 0 
6 0.875 0 
6 1 0 
6.5 1 0 
6.5 0.875 0 
6.5 0.75 0 
6.5 0.625 0 
6.5 0.5 0 
6.5 0.375 0 
6.5 0.25 0 
6.5 0.125 0 
6.5 0 0 
7 0 0 
7 0.125 0 
7 0.25 0 
7 0.375 0 
7 0.5 0 
7 0.625 0 
7 0.75 0 
7 0.875 0 
7 1 0 
7.5 1 0 
7.5 0.875 0 
7.5 0.75 0 
7.5 0.625 0 
7.5 0.5 0 
7.5 0.375 0 
7.5 0.25 0 
7.5 0.125 0 
7.5 0 0 
8 0 0 
8 0.125 0 
8 0.25 0 
8 0.375 0 
8 0.5 0 
8 0.625 0 
8 0.75 0 
8 0.875 0 
8 1 0 
8.5 1 0 
8.5 0.875 0 
8.5 0.75 0 
8.5 0.625 0 
8.5 0.5 0 
8.5 0.375 0 
8.5 0.25 0 
8.5 0.125 0 
8.5 0 0 
9 0 0 
9 0.125 0 
9 0.25 0 
9 0.375 0 
9 0.5 0 
9 0.625 0 
9 0.75 0 
9 0.875 0 
9 1 0 
9.5 1 0 
9.5 0.875 0 
9.5 0.75 0 
9.5 0.625 0 
9.5 0.5 0 
9.5 0.375 0 
9.5 0.25 0 
9.5 0.125 0 
9.5 0 0 
10 0 0 
10 0.125 0 
10 0.25 0 
10 0.375 0 
10 0.5 0 
10 0.625 0 
10 0.75 0 
10 0.875 0 
10 1 0 
CELLS 160 800
4 0 17 16 1
4 17 18 19 16
4 18 35 34 19
4 35 36 37 34
4 36 53 52 37
4 53 54 55 52
4 54 71 70 55
4 71 72 73 70
4 72 89 88 73
4 89 90 91 88
4 90 107 106 91
4 107 108 109 106
4 108 125 124 109
4 125 126 127 124
4 126 143 142 127
4 143 144 145 142
4 144 161 160 145
4 161 162 163 160
4 162 179 178 163
4 179 180 181 178
4 178 181 182 177
4 163 178 177 164
4 160 163 164 159
4 145 160 159 146
4 142 145 146 141
4 127 142 141 128
4 124 127 128 123
4 109 124 123 110
4 106 109 110 105
4 91 106 105 92
4 88 91 92 87
4 73 88 87 74
4 70 73 74 69
4 55 70 69 56
4 52 55 56 51
4 37 52 51 38
4 34 37 38 33
4 19 34 33 20
4 16 19 20 15
4 1 16 15 2
4 2 15 14 3
4 15 20 21 14
4 20 33 32 21
4 33 38 39 32
4 38 51 50 39
4 51 56 57 50
4 56 69 68 57
4 69 74 75 68
4 74 87 86 75
4 87 92 93 86
4 92 105 104 93
4 105 110 111 104
4 110 123 122 111
4 123 128 129 122
4 128 141 140 129
4 141 146 147 140
4 146 159 158 147
4 159 164 165 158
4 164 177 176 165
4 177 182 183 176
4 176 183 184 175
4 165 176 175 166
4 158 165 166 157
4 147 158 157 148
4 140 147 148 139
4 129 140 139 130
4 122 129 130 121
4 111 122 121 112
4 104 111 112 103
4 93 104 103 94
4 86 93 94 85
4 75 86 85 76
4 68 75 76 67
4 57 68 67 58
4 50 57 58 49
4 39 50 49 40
4 32 39 40 31
4 21 32 31 22
4 14 21 22 13
4 3 14 13 4
4 4 13 12 5
4 13 22 23 12
4 22 31 30 23
4 31 40 41 30
4 40 49 48 41
4 49 58 59 48
4 58 67 66 59
4 67 76 77 66
4 76 85 84 77
4 85 94 95 84
4 94 103 102 95
4 103 112 113 102
4 112 121 120 113
4 121 130 131 120
4 130 139 138 131
4 139 148 149 138
4 148 157 156 149
4 157 166 167 156
4 166 175 174 167
4 175 184 185 174
4 174 185 186 173
4 167 174 173 168
4 156 167 168 155
4 149 156 155 150
4 138 149 150 137
4 131 138 137 132
4 120 131 132 119
4 113 120 119 114
4 102 113 114 101
4 95 102 101 96
4 84 95 96 83
4 77 84 83 78
4 66 77 78 65
4 59 66 65 60
4 48 59 60 47
4 41 48 47 42
4 30 41 42 29
4 23 30 29 24
4 12 23 24 11
4 5 12 11 6
4 6 11 10 7
4 11 24 25 10
4 24 29 28 25
4 29 42 43 28
4 42 47 46 43
4 47 60 61 46
4 60 65 64 61
4 65 78 79 64
4 78 83 82 79
4 83 96 97 82
4 96 101 100 97
4 101 114 115 100
4 114 119 118 115
4 119 132 133 118
4 132 137 136 133
4 137 150 151 136
4 150 155 154 151
4 155 168 169 154
4 168 173 172 169
4 173 186 187 172
4 172 187 188 171
4 169 172 171 170
4 154 169 170 153
4 151 154 153 152
4 136 151 152 135
4 133 136 135 134
4 118 133 134 117
4 115 118 117 116
4 100 115 116 99
4 97 100 99 98
4 82 97 98 81
4 79 82 81 80
4 64 79 80 63
4 61 64 63 62
4 46 61 62 45
4 43 46 45 44
4 28 43 44 27
4 25 28 27 26
4 10 25 26 9
4 7 10 9 8
CELL_TYPES 160
9
9
9
9
9
9
9
9
9
9
9
9
9
9
9
9
9
9
9
9
9
9
9
9
9
9
9
9
9
9
9
9
9
9
9
9
9
9
9
9
9
9
9
9
9
9
9
9
9
9
9
9
9
9
9
9
9
9
9
9
9
9
9
9
9
9
9
9
9
9
9
9
9
9
9
9
9
9
9
9
9
9
9
9
9
9
9
9
9
9
9
9
9
9
9
9
9
9
9
9
9
9
9
9
9
9
9
9
9
9
9
9
9
9
9
9
9
9
9
9
9
9
9
9
9
9
9
9
9
9
9
9
9
9
9
9
9
9
9
9
9
9
9
9
9
9
9
9
9
9
9
9
9
9
9
9
9
9
9
9
POINT_DATA 189
SCALARS Coor(m) float 3
LOOKUP_TABLE default
0 0 0 
0 0.125 0 
0 0.25 0 
0 0.375 0 
0 0.5 0 
0 0.625 0 
0 0.75 0 
0 0.875 0 
0 1 0 
0.5 1 0 
0.5 0.875 0 
0.5 0.75 0 
0.5 0.625 0 
0.5 0.5 0 
0.5 0.375 0 
0.5 0.25 0 
0.5 0.125 0 
0.5 0 0 
1 0 0 
1 0.125 0 
1 0.25 0 
1 0.375 0 
1 0.5 0 
1 0.625 0 
1 0.75 0 
1 0.875 0 
1 1 0 
1.5 1 0 
1.5 0.875 0 
1.5 0.75 0 
1.5 0.625 0 
1.5 0.5 0 
1.5 0.375 0 
1.5 0.25 0 
1.5 0.125 0 
1.5 0 0 
2 0 0 
2 0.125 0 
2 0.25 0 
2 0.375 0 
2 0.5 0 
2 0.625 0 
2 0.75 0 
2 0.875 0 
2 1 0 
2.5 1 0 
2.5 0.875 0 
2.5 0.75 0 
2.5 0.625 0 
2.5 0.5 0 
2.5 0.375 0 
2.5 0.25 0 
2.5 0.125 0 
2.5 0 0 
3 0 0 
3 0.125 0 
3 0.25 0 
3 0.375 0 
3 0.5 0 
3 0.625 0 
3 0.75 0 
3 0.875 0 
3 1 0 
3.5 1 0 
3.5 0.875 0 
3.5 0.75 0 
3.5 0.625 0 
3.5 0.5 0 
3.5 0.375 0 
3.5 0.25 0 
3.5 0.125 0 
3.5 0 0 
4 0 0 
4 0.125 0 
4 0.25 0 
4 0.375 0 
4 0.5 0 
4 0.625 0 
4 0.75 0 
4 0.875 0 
4 1 0 
4.5 1 0 
4.5 0.875 0 
4.5 0.75 0 
4.5 0.625 0 
4.5 0.5 0 
4.5 0.375 0 
4.5 0.25 0 
4.5 0.125 0 
4.5 0 0 
5 0 0 
5 0.125 0 
5 0.25 0 
5 0.375 0 
5 0.5 0 
5 0.625 0 
5 0.75 0 
5 0.875 0 
5 1 0 
5.5 1 0 
5.5 0.875 0 
5.5 0.75 0 
5.5 0.625 0 
5.5 0.5 0 
5.5 0.375 0 
5.5 0.25 0 
5.5 0.125 0 
5.5 0 0 
6 0 0 
6 0.125 0 
6 0.25 0 
6 0.375 0 
6 0.5 0 
6 0.625 0 
6 0.75 0 
6 0.875 0 
6 1 0 
6.5 1 0 
6.5 0.875 0 
6.5 0.75 0 
6.5 0.625 0 
6.5 0.5 0 
6.5 0.375 0 
6.5 0.25 0 
6.5 0.125 0 
6.5 0 0 
7 0 0 
7 0.125 0 
7 0.25 0 
7 0.375 0 
7 0.5 0 
7 0.625 0 
7 0.75 0 
7 0.875 0 
7 1 0 
7.5 1 0 
7.5 0.875 0 
7.5 0.75 0 
7.5 0.625 0 
7.5 0.5 0 
7.5 0.375 0 
7.5 0.25 0 
7.5 0.125 0 
7.5 0 0 
8 0 0 
8 0.125 0 
8 0.25 0 
8 0.375 0 
8 0.5 0 
8 0.625 0 
8 0.75 0 
8 0.875 0 
8 1 0 
8.5 1 0 
8.5 0.875 0 
8.5 0.75 0 
8.5 0.625 0 
8.5 0.5 0 
8.5 0.375 0 
8.5 0.25 0 
8.5 0.125 0 
8.5 0 0 
9 0 0 
9 0.125 0 
9 0.25 0 
9 0.375 0 
9 0.5 0 
9 0.625 0 
9 0.75 0 
9 0.875 0 
9 1 0 
9.5 1 0 
9.5 0.875 0 
9.5 0.75 0 
9.5 0.625 0 
9.5 0.5 0 
9.5 0.375 0 
9.5 0.25 0 
9.5 0.125 0 
9.5 0 0 
10 0 0 
10 0.125 0 
10 0.25 0 
10 0.375 0 
10 0.5 0 
10 0.625 0 
10 0.75 0 
10 0.875 0 
10 1 0 
VECTORS Displace float
-7.3941e-25 -2.17667e-25 0 
-7.85619e-25 1.38686e-26 0 
-5.14148e-25 1.63297e-26 0 
-2.56231e-25 2.11093e-26 0 
1.58914e-27 1.99119e-26 0 
2.55073e-25 2.15727e-26 0 
5.11798e-25 1.59283e-26 0 
7.86442e-25 1.01188e-26 0 
7.40389e-25 -2.14393e-25 0 
3.80101e-05 -2.46546e-05 0 
2.77544e-05 -2.29871e-05 0 
1.8208e-05 -2.18871e-05 0 
9.02647e-06 -2.12613e-05 0 
9.78338e-10 -2.10542e-05 0 
-9.02238e-06 -2.12488e-05 0 
-1.82038e-05 -2.18617e-05 0 
-2.77473e-05 -2.29494e-05 0 
-3.79956e-05 -2.46035e-05 0 
-7.17373e-05 -8.19209e-05 0 
-5.34746e-05 -8.07883e-05 0 
-3.5447e-05 -7.99258e-05 0 
-1.76551e-05 -7.93933e-05 0 
7.81734e-09 -7.92183e-05 0 
1.76716e-05 -7.9407e-05 0 
3.54645e-05 -7.99533e-05 0 
5.349e-05 -8.08287e-05 0 
7.17498e-05 -8.19725e-05 0 
0.000102376 -0.000171797 0 
7.63772e-05 -0.000170697 0 
5.07454e-05 -0.000169925 0 
2.53252e-05 -0.000169463 0 
1.12329e-08 -0.000169305 0 
-2.53044e-05 -0.000169453 0 
-5.07233e-05 -0.000169907 0 
-7.63559e-05 -0.000170668 0 
-0.000102356 -0.000171759 0 
-0.000129621 -0.000290328 0 
-9.68488e-05 -0.000289375 0 
-6.4384e-05 -0.000288688 0 
-3.21326e-05 -0.000288278 0 
1.20509e-08 -0.000288145 0 
3.21576e-05 -0.00028829 0 
6.4408e-05 -0.000288713 0 
9.68737e-05 -0.00028941 0 
0.000129647 -0.000290374 0 
0.000153836 -0.000434525 0 
0.000115036 -0.000433668 0 
7.65312e-05 -0.000433053 0 
3.82237e-05 -0.000432682 0 
1.54194e-08 -0.000432554 0 
-3.81925e-05 -0.00043267 0 
-7.64992e-05 -0.000433031 0 
-0.000115003 -0.000433634 0 
-0.000153803 -0.000434481 0 
-0.00017508 -0.000601215 0 
-0.000130982 -0.000600475 0 
-8.716e-05 -0.000599946 0 
-4.35241e-05 -0.00059963 0 
1.8863e-08 -0.000599529 0 
4.35628e-05 -0.000599644 0 
8.72e-05 -0.000599974 0 
0.000131021 -0.000600516 0 
0.00017512 -0.000601267 0 
0.000193681 -0.000787766 0 
0.000144966 -0.000787112 0 
9.65092e-05 -0.00078664 0 
4.82243e-05 -0.000786355 0 
2.56158e-08 -0.000786256 0 
-4.81742e-05 -0.000786344 0 
-9.64605e-05 -0.000786619 0 
-0.000144916 -0.000787079 0 
-0.000193632 -0.000787722 0 
-0.00020965 -0.00099136 0 
-0.000156951 -0.000990809 0 
-0.000104491 -0.000990414 0 
-5.21907e-05 -0.000990179 0 
2.88238e-08 -0.000990104 0 
5.22492e-05 -0.000990191 0 
0.00010455 -0.00099044 0 
0.000157009 -0.000990846 0 
0.000209707 -0.000991409 0 
0.000223383 -0.00120975 0 
0.00016729 -0.00120927 0 
0.000111416 -0.00120892 0 
5.56882e-05 -0.00120871 0 
3.29819e-08 -0.00120864 0 
-5.56217e-05 -0.0012087 0 
-0.00011135 -0.0012089 0 
-0.000167224 -0.00120924 0 
-0.000223318 -0.0012097 0 
-0.000234823 -0.00144048 0 
-0.000175873 -0.00144009 0 
-0.000117123 -0.00143981 0 
-5.85088e-05 -0.00143964 0 
3.88249e-08 -0.00143959 0 
5.85851e-05 -0.00143965 0 
0.000117199 -0.00143983 0 
0.000175947 -0.00144012 0 
0.000234896 -0.00144052 0 
0.000244431 -0.00168167 0 
0.000183119 -0.00168134 0 
0.000121991 -0.0016811 0 
6.09846e-05 -0.00168095 0 
3.91902e-08 -0.0016809 0 
-6.09064e-05 -0.00168094 0 
-0.000121912 -0.00168108 0 
-0.000183038 -0.00168131 0 
-0.000244347 -0.00168163 0 
-0.000252084 -0.00193126 0 
-0.000188862 -0.001931 0 
-0.000125802 -0.00193082 0 
-6.28523e-05 -0.00193071 0 
4.22482e-08 -0.00193068 0 
6.29383e-05 -0.00193072 0 
0.000125888 -0.00193085 0 
0.000188947 -0.00193104 0 
0.00025217 -0.00193131 0 
0.000258304 -0.00218772 0 
0.000193572 -0.00218751 0 
0.000128984 -0.00218735 0 
6.44911e-05 -0.00218725 0 
4.75172e-08 -0.00218722 0 
-6.43971e-05 -0.00218724 0 
-0.00012889 -0.00218733 0 
-0.000193479 -0.00218747 0 
-0.000258215 -0.00218768 0 
-0.000262918 -0.00244937 0 
-0.00019703 -0.00244922 0 
-0.000131267 -0.00244911 0 
-6.55873e-05 -0.00244904 0 
4.89655e-08 -0.00244902 0 
6.56863e-05 -0.00244905 0 
0.000131366 -0.00244912 0 
0.000197129 -0.00244924 0 
0.000263018 -0.00244941 0 
0.000266499 -0.00271504 0 
0.000199762 -0.00271492 0 
0.000133134 -0.00271483 0 
6.65755e-05 -0.00271477 0 
5.41718e-08 -0.00271475 0 
-6.64684e-05 -0.00271476 0 
-0.000133026 -0.0027148 0 
-0.000199654 -0.00271488 0 
-0.00026639 -0.00271499 0 
-0.000268814 -0.00298343 0 
-0.000201493 -0.00298335 0 
-0.000134258 -0.0029833 0 
-6.70825e-05 -0.00298327 0 
6.06811e-08 -0.00298326 0 
6.72059e-05 -0.00298328 0 
0.000134379 -0.00298332 0 
0.000201612 -0.00298338 0 
0.000268932 -0.00298347 0 
0.0002705 -0.00325375 0 
0.000202811 -0.00325369 0 
0.00013519 -0.00325365 0 
6.76163e-05 -0.00325362 0 
6.55494e-08 -0.00325361 0 
-6.74864e-05 -0.00325361 0 
-0.000135062 -0.00325363 0 
-0.000202683 -0.00325366 0 
-0.000270372 -0.00325371 0 
-0.000271257 -0.00352506 0 
-0.000203366 -0.00352504 0 
-0.000135527 -0.00352502 0 
-6.77225e-05 -0.00352501 0 
6.70757e-08 -0.003525 0 
6.7856e-05 -0.00352501 0 
0.000135664 -0.00352503 0 
0.000203502 -0.00352506 0 
0.000271386 -0.00352509 0 
0.000271808 -0.00379692 0 
0.000203825 -0.00379691 0 
0.000135878 -0.00379691 0 
6.79591e-05 -0.0037969 0 
5.67441e-08 -0.0037969 0 
-6.78418e-05 -0.00379689 0 
-0.000135749 -0.00379689 0 
-0.000203676 -0.0037969 0 
-0.000271633 -0.00379691 0 
-0.000271712 -0.00406879 0 
-0.000203753 -0.00406878 0 
-0.000135806 -0.00406879 0 
-6.78712e-05 -0.0040688 0 
5.82158e-08 -0.00406882 0 
6.79948e-05 -0.00406886 0 
0.000135947 -0.00406892 0 
0.00020393 -0.004069 0 
0.000271961 -0.00406908 0 
SCALARS Sx float 1
LOOKUP_TABLE default
-7.51915e+06
-6.39004e+06
-4.19028e+06
-2.07699e+06
-142.838
2.07682e+06
4.19041e+06
6.39094e+06
7.5206e+06
7.10944e+06
6.08163e+06
4.03712e+06
2.01259e+06
169.02
-2.01221e+06
-4.0367e+06
-6.08136e+06
-7.10932e+06
-6.37447e+06
-5.4766e+06
-3.66687e+06
-1.83717e+06
93.3388
1.83731e+06
3.6669e+06
5.47625e+06
6.3738e+06
5.72217e+06
4.90349e+06
3.26836e+06
1.63463e+06
-409.515
-1.63546e+06
-3.26917e+06
-4.90408e+06
-5.72254e+06
-5.08982e+06
-4.36484e+06
-2.91236e+06
-1.45672e+06
-337.149
1.45609e+06
2.91184e+06
4.36445e+06
5.08949e+06
4.49668e+06
3.8559e+06
2.57277e+06
1.28701e+06
-161.311
-1.28727e+06
-2.57294e+06
-3.85609e+06
-4.49693e+06
-3.94027e+06
-3.37907e+06
-2.25494e+06
-1.12805e+06
145.879
1.12824e+06
2.25499e+06
3.37913e+06
3.94037e+06
3.42066e+06
2.93367e+06
1.95805e+06
979774
195.101
-979393
-1.95765e+06
-2.93323e+06
-3.4202e+06
-2.93747e+06
-2.51946e+06
-1.68184e+06
-841617
-37.6572
841598
1.68192e+06
2.51956e+06
2.93756e+06
2.49117e+06
2.13691e+06
1.42684e+06
714198
189.919
-713923
-1.42677e+06
-2.13692e+06
-2.49116e+06
-2.08139e+06
-1.78571e+06
-1.19269e+06
-597050
-112.064
596870
1.1926e+06
1.78581e+06
2.08164e+06
1.7086e+06
1.46612e+06
979485
490208
-356.876
-490861
-980018
-1.46657e+06
-1.70902e+06
-1.37331e+06
-1.17874e+06
-787993
-394654
-30.5137
394510
787688
1.17814e+06
1.3725e+06
1.07332e+06
921621
616578
308878
-139.569
-309152
-616823
-921772
-1.0734e+06
-810614
-696483
-466564
-233978
-55.9776
233916
466615
696701
810935
585594
503656
338132
169983
517.857
-168969
-337244
-503030
-585126
-395924
-340962
-229319
-115035
478.527
115923
230019
341530
396479
243568
210580
142724
72008.3
-26.9175
-72002.2
-142531
-210479
-243688
-127161
-110909
-76745.2
-39871.2
-1367.14
37630.5
75952.7
112322
129826
53198.6
45035
28968.5
13180.5
-2441.83
-17431.5
-31116.2
-42427.3
-47305.9
-17373.7
-16285.1
-12983
-8062.39
-2339.89
3911.73
10577.9
18514.5
23021
SCALARS Sy float 1
LOOKUP_TABLE default
-530581
-466655
-328015
-170599
-2851.1
164834
322332
460985
524779
196399
180235
135612
70866.6
-4344.59
-79641.4
-144266
-188735
-204954
48540.1
38974.6
21386.9
6760.89
-5648.84
-17898.5
-32327.8
-49665.2
-59017
-1138.17
-5465.84
-10358.4
-9377.76
-5224.19
-767.375
433.704
-4462.26
-8710.46
2976.57
1526.65
-947.025
-2898.98
-5091.16
-7261.36
-9047.44
-11534.1
-13140.9
-10782.1
-11128.8
-10746.6
-8541.52
-5493.33
-2469.61
-58.5642
706.695
512.728
1098.11
727.825
-469.942
-2721.49
-5671.96
-8583.94
-10701.7
-11384.3
-11334.7
-11211.6
-11375.2
-10653.3
-8459.23
-5457.3
-2475.42
-186.072
921.297
1027.77
1114.65
1067.24
-78.8273
-2453.95
-5382.77
-8374.24
-10548.7
-11399.3
-11414.5
-11388.8
-11395.8
-10404.4
-8123.95
-5160.63
-2076.93
118.003
1060.93
1211.53
1264.6
1166.56
460.07
-1566.91
-4678.47
-7687.59
-9940.37
-11009.3
-11141.6
-11184.6
-11001.3
-10010.8
-7744.62
-4861.17
-2214.74
-30.2018
963.519
994.614
965.817
620.77
-863.253
-3162.08
-5561.65
-8149.6
-10391.7
-11220.6
-11155.6
-10968.8
-10954.2
-10018.1
-7825.76
-5194.35
-2483.12
-224.72
904.064
1125.25
814.428
1014.9
452.461
-1714.29
-4728.36
-7638.45
-9785.33
-10780.2
-10928.1
-10999.6
-10882.8
-9957.99
-7819.28
-4913.78
-2005.11
146.679
916.932
869.309
1188
1118.7
321.828
-1836.84
-4739.55
-7551.22
-9773.38
-10681.2
-10706.9
-11075.5
-10754
-9464.86
-6992.71
-3960.03
-950.405
1145.02
1468.46
1177.88
1139.37
1452.46
1103.01
-761.162
-3038.74
-5381.31
-7250.77
-8007.8
-8161.98
-20328.8
-19983.6
-18077.8
-14270.8
-9774.7
-5285.99
-1390.07
674.579
1082.19
1052.1
153.285
-3338.78
-9431.54
-16834
-24359.3
-30957.6
-35034.1
-36134.7
SCALARS Txy float 1
LOOKUP_TABLE default
-316759
-318639
-314417
-304089
-299958
-305098
-316564
-321309
-319634
-186318
-241754
-326508
-368251
-380760
-367888
-325432
-240582
-185233
-91275.6
-176492
-318136
-402128
-429556
-401722
-317766
-176125
-90741.2
-117472
-183336
-294917
-364200
-387724
-364347
-295084
-183211
-117266
-104087
-170697
-280761
-345776
-367327
-345825
-280824
-170802
-104291
-99144.7
-160475
-263088
-325006
-345734
-325103
-263035
-160367
-99043
-92634.8
-150335
-246507
-304293
-323542
-304111
-246433
-150335
-92547.8
-86133
-139907
-229407
-283178
-301221
-283201
-229459
-139956
-86178.4
-79976.7
-129765
-212708
-262549
-279184
-262488
-212775
-129995
-80280.2
-73752.3
-119497
-195800
-241620
-256926
-241701
-195856
-119496
-73712
-67303.2
-109236
-179059
-220842
-234818
-220930
-178953
-108959
-66972.8
-60902.9
-99058.4
-162548
-200485
-213032
-200294
-162254
-98817.8
-60739.1
-54305.9
-88343.4
-145193
-179409
-190753
-179412
-145400
-88618.5
-54567.5
-48299.5
-78306.9
-128369
-158589
-168846
-158892
-128771
-78615.4
-48534.2
-41904.1
-68138
-111760
-138022
-146935
-138080
-111981
-68555.8
-42337.2
-35604.9
-57941.7
-94926
-117159
-124766
-117194
-94804.4
-57783.5
-35557.4
-29597.5
-47785.2
-78164.5
-96688.9
-102919
-96695.8
-78326.1
-47779.5
-29481.2
-23429.7
-37456.8
-61046.8
-75522.1
-80445
-75606.5
-61225.2
-37368.3
-23043.5
-17492.5
-28058.9
-45611.4
-55905.7
-59097.6
-54852.6
-43370.6
-25553.4
-15089.4
-9748.76
-16554
-28027.7
-35046.6
-37326.1
-34773.7
-27686.9
-16560.7
-10039.7
-4778.57
-9172.98
-16998.2
-22681.3
-25337
-24783.3
-21053
-13820.6
-9361.16
