# vtk DataFile Version 2.0
fem_test
ASCII
DATASET UNSTRUCTURED_GRID
POINTS 16 float
0 0 0 
1 0 0 
2 0 0 
3 0 0 
3 1 0 
2 1 0 
1 1 0 
0 1 0 
0 0 1 
1 0 1 
2 0 1 
3 0 1 
3 1 1 
2 1 1 
1 1 1 
0 1 1 
CELLS 3 27
8 0 1 6 7 8 9 14 15
8 1 2 5 6 9 10 13 14
8 2 3 4 5 10 11 12 13
CELL_TYPES 3
12
12
12
POINT_DATA 16
SCALARS Coor(m) float 3
LOOKUP_TABLE default
0 0 0 
1 0 0 
2 0 0 
3 0 0 
3 1 0 
2 1 0 
1 1 0 
0 1 0 
0 0 1 
1 0 1 
2 0 1 
3 0 1 
3 1 1 
2 1 1 
1 1 1 
0 1 1 
VECTORS Displace float
-6.22426e-26 -4.7846e-27 -1.92766e-26 
-1.74361e-05 -1.18483e-06 -2.61874e-05 
-2.28121e-05 -9.06503e-08 -7.17979e-05 
-2.30015e-05 -1.87176e-07 -0.000117459 
-2.30015e-05 1.87176e-07 -0.000117459 
-2.28121e-05 9.06503e-08 -7.17979e-05 
-1.74361e-05 1.18483e-06 -2.61874e-05 
-6.22426e-26 4.7846e-27 -1.92766e-26 
6.23386e-26 4.71846e-27 -1.86203e-26 
1.74859e-05 1.13827e-06 -2.64799e-05 
2.29532e-05 3.61448e-08 -7.20512e-05 
2.35533e-05 -1.59142e-07 -0.000119609 
2.35533e-05 1.59142e-07 -0.000119609 
2.29532e-05 -3.61448e-08 -7.20512e-05 
1.74859e-05 -1.13827e-06 -2.64799e-05 
6.23386e-26 -4.71846e-27 -1.86203e-26 
SCALARS Sx float 1
LOOKUP_TABLE default
-6.70835
-1.86789
4.44438
5.91619
5.91619
4.44438
-1.86789
-6.70835
-6.70835
-1.86789
4.44438
5.91619
5.91619
4.44438
-1.86789
-6.70835
SCALARS Sy float 1
LOOKUP_TABLE default
-33.8412
26.1357
3.67674
-78.7592
-78.7592
3.67674
26.1357
-33.8412
-33.8412
26.1357
3.67674
-78.7592
-78.7592
3.67674
26.1357
-33.8412
SCALARS Sz float 1
LOOKUP_TABLE default
-2931.21
-4186.35
-14744.3
-24047
-24047
-14744.3
-4186.35
-2931.21
-2931.21
-4186.35
-14744.3
-24047
-24047
-14744.3
-4186.35
-2931.21
SCALARS Txy float 1
LOOKUP_TABLE default
-5.366e-11
-2.18278e-11
4.70379e-11
8.40714e-11
8.40714e-11
4.70379e-11
-2.18278e-11
-5.366e-11
-5.366e-11
-2.18278e-11
4.70379e-11
8.40714e-11
8.40714e-11
4.70379e-11
-2.18278e-11
-5.366e-11
SCALARS Tyz float 1
LOOKUP_TABLE default
1.45519e-11
3.63795e-12
-4.72937e-11
-8.73115e-11
-8.73115e-11
-4.72937e-11
3.63795e-12
1.45519e-11
1.45519e-11
3.63795e-12
-4.72937e-11
-8.73115e-11
-8.73115e-11
-4.72937e-11
3.63795e-12
1.45519e-11
SCALARS Tzx float 1
LOOKUP_TABLE default
-75834.6
-60341.5
-24343.4
-3838.48
-3838.48
-24343.4
-60341.5
-75834.6
-75834.6
-60341.5
-24343.4
-3838.48
-3838.48
-24343.4
-60341.5
-75834.6
